LAMMPS data file

2200 atoms
1799 bonds
1398 angles

5 atom types
2 bond types
1 angle types

-30.0000 30.0000 xlo xhi
-30.0000 30.0000 ylo yhi
-30.0000 30.0000 zlo zhi

Masses

1	1.0000
2	1.0000
3	1.0000
4	1.0000
5	1.0000

Atoms

1	1	1	0.0000	0.197	-8.384	3.797
2	1	1	0.0000	-0.55	-7.785	3.522
3	1	1	0.0000	-0.019	-7.216	4.075
4	1	1	0.0000	0.322	-7.12	3.222
5	1	1	0.0000	0.577	-6.953	4.148
6	1	1	0.0000	0.789	-6.985	3.161
7	1	1	0.0000	1.028	-7.903	3.404
8	1	2	0.0000	1.507	-7.078	3.437
9	1	1	0.0000	2.402	-7.572	3.333
10	1	1	0.0000	3.237	-7.18	3.211
11	1	1	0.0000	2.422	-7.69	3.26
12	1	1	0.0000	2.63	-8.473	2.641
13	1	1	0.0000	1.896	-8.363	2.018
14	1	1	0.0000	2.433	-8.414	1.213
15	1	1	0.0000	2.252	-9.181	0.648
16	1	1	0.0000	2.632	-8.353	0.432
17	1	1	0.0000	3.129	-8.549	-0.387
18	1	1	0.0000	3.329	-8.69	-1.364
19	1	1	0.0000	3.958	-8.065	-1.66
20	1	1	0.0000	3.268	-7.354	-1.68
21	1	1	0.0000	3.911	-7.142	-2.431
22	1	1	0.0000	4.521	-6.498	-2.722
23	1	2	0.0000	3.959	-6.28	-1.966
24	1	1	0.0000	4.907	-6.446	-2.183
25	1	1	0.0000	5.59	-6.243	-2.828
26	1	1	0.0000	5.186	-6.062	-1.967
27	1	1	0.0000	4.985	-6.217	-0.936
28	1	1	0.0000	4.735	-7.146	-0.862
29	1	1	0.0000	4.642	-6.427	-0.202
30	1	1	0.0000	5.393	-6.359	0.459
31	1	1	0.0000	5.474	-6.883	1.227
32	1	1	0.0000	5.333	-6.97	2.15
33	1	1	0.0000	4.845	-6.895	1.219
34	1	1	0.0000	4.562	-7.345	1.998
35	1	1	0.0000	3.583	-7.448	1.894
36	1	1	0.0000	2.628	-7.613	2.017
37	1	1	0.0000	1.658	-7.207	1.964
38	1	2	0.0000	1.59	-7.642	1.048
39	1	1	0.0000	1.121	-7.128	0.408
40	1	1	0.0000	0.179	-7.137	0.358
41	1	1	0.0000	0.42	-7.172	1.334
42	1	1	0.0000	0.58	-7.727	2.132
43	1	1	0.0000	-0.064	-7.084	1.704
44	1	1	0.0000	-0.46	-7.35	2.549
45	1	1	0.0000	-1.35	-7.467	2.896
46	1	1	0.0000	-1.174	-8.485	2.898
47	1	1	0.0000	-1.72	-7.742	3.106
48	1	1	0.0000	-1.908	-8.163	2.263
49	1	1	0.0000	-2.091	-9.12	2.129
50	1	1	0.0000	-1.917	-8.276	1.724
51	1	1	0.0000	-2.471	-8.888	1.242
52	1	1	0.0000	-1.682	-8.465	0.766
53	1	2	0.0000	-0.781	-8.594	0.334
54	1	1	0.0000	-0.182	-8.028	0.753
55	1	1	0.0000	-0.582	-8.392	-0.039
56	1	1	0.0000	-0.762	-7.396	-0.086
57	1	1	0.0000	-0.977	-6.46	-0.033
58	1	1	0.0000	-1.496	-7.023	-0.601
59	1	1	0.0000	-0.935	-7.289	-1.365
60	1	1	0.0000	-1.708	-7.925	-1.354
61	1	1	0.0000	-0.927	-7.957	-1.959
62	1	1	0.0000	0.008	-8.157	-2.072
63	1	1	0.0000	0.421	-8.544	-1.269
64	1	1	0.0000	0.941	-7.723	-1.361
65	1	1	0.0000	1.175	-8.002	-0.478
66	1	1	0.0000	1.57	-7.257	-0.972
67	1	1	0.0000	1.313	-7.986	-0.395
68	1	2	0.0000	1.869	-7.414	-0.924
69	1	1	0.0000	2.736	-7.128	-0.645
70	1	1	0.0000	3.546	-6.958	-0.238
71	1	1	0.0000	2.672	-6.704	0.047
72	1	1	0.0000	2.518	-7.273	0.783
73	1	1	0.0000	3.376	-6.807	0.721
74	1	1	0.0000	3.748	-5.921	0.946
75	1	1	0.0000	3.421	-5.166	1.435
76	1	1	0.0000	3.223	-5.944	1.912
77	1	1	0.0000	4.162	-6.012	2.26
78	1	1	0.0000	3.216	-5.795	2.431
79	1	1	0.0000	2.376	-5.522	2.745
80	1	1	0.0000	2.572	-4.835	3.338
81	1	1	0.0000	3.19	-5.063	4.058
82	1	1	0.0000	3.02	-5.913	3.672
83	1	2	0.0000	3.861	-5.492	4.005
84	1	1	0.0000	4.622	-5.945	4.284
85	1	1	0.0000	4.844	-5.53	3.465
86	1	1	0.0000	5.613	-6.089	3.474
87	1	1	0.0000	5.733	-5.585	2.626
88	1	1	0.0000	5.685	-5.433	1.692
89	1	1	0.0000	6.558	-5.77	1.438
90	1	1	0.0000	6.743	-4.859	1.732
91	1	1	0.0000	6.522	-5.362	0.969
92	1	1	0.0000	6.469	-5.673	0.029
93	1	1	0.0000	6.424	-5.228	-0.794
94	1	1	0.0000	7.377	-5.0	-1.061
95	1	1	0.0000	7.179	-4.948	-2.066
96	1	1	0.0000	7.286	-5.886	-2.147
97	1	1	0.0000	6.425	-5.471	-2.463
98	1	2	0.0000	5.913	-4.749	-2.787
99	1	1	0.0000	5.804	-3.996	-3.433
100	1	1	0.0000	5.751	-4.855	-2.853
101	1	1	0.0000	4.81	-4.64	-3.082
102	1	1	0.0000	5.147	-5.325	-3.7
103	1	1	0.0000	4.436	-5.927	-3.676
104	1	1	0.0000	4.394	-5.009	-3.964
105	1	1	0.0000	4.853	-4.188	-4.275
106	1	1	0.0000	5.428	-4.827	-4.751
107	1	1	0.0000	5.045	-4.116	-5.396
108	1	1	0.0000	4.202	-3.96	-5.806
109	1	1	0.0000	4.067	-4.492	-4.984
110	1	1	0.0000	3.732	-5.375	-4.931
111	1	1	0.0000	2.874	-5.73	-4.77
112	1	1	0.0000	3.842	-5.561	-5.141
113	1	2	0.0000	3.783	-6.538	-4.85
114	1	1	0.0000	3.054	-7.058	-5.295
115	1	1	0.0000	2.694	-7.002	-4.462
116	1	1	0.0000	2.467	-6.39	-3.703
117	1	1	0.0000	2.591	-7.181	-3.192
118	1	1	0.0000	2.229	-6.285	-3.301
119	1	1	0.0000	2.152	-5.279	-3.28
120	1	1	0.0000	2.576	-5.495	-2.457
121	1	1	0.0000	3.046	-6.325	-2.569
122	1	1	0.0000	3.233	-5.734	-3.321
123	1	1	0.0000	4.067	-5.495	-2.792
124	1	1	0.0000	4.302	-5.104	-1.964
125	1	1	0.0000	3.373	-5.439	-1.869
126	1	1	0.0000	3.816	-4.695	-1.318
127	1	1	0.0000	3.069	-4.308	-1.936
128	1	2	0.0000	3.488	-4.741	-2.642
129	1	1	0.0000	3.019	-4.486	-3.453
130	1	1	0.0000	3.736	-3.961	-3.932
131	1	1	0.0000	2.798	-3.939	-4.286
132	1	1	0.0000	3.305	-3.387	-4.858
133	1	1	0.0000	2.441	-3.689	-5.15
134	1	1	0.0000	3.059	-4.387	-5.303
135	1	1	0.0000	2.087	-4.305	-5.24
136	1	1	0.0000	1.557	-5.008	-4.938
137	1	1	0.0000	1.861	-5.862	-5.037
138	1	1	0.0000	1.304	-5.108	-5.214
139	1	1	0.0000	0.517	-4.995	-5.644
140	1	1	0.0000	0.493	-5.948	-5.787
141	1	1	0.0000	-0.016	-6.776	-5.632
142	1	1	0.0000	0.624	-7.487	-5.579
143	1	2	0.0000	0.29	-6.728	-5.132
144	1	1	0.0000	-0.025	-7.625	-5.056
145	1	1	0.0000	-0.03	-8.473	-4.527
146	1	1	0.0000	-0.748	-7.848	-4.688
147	1	1	0.0000	-0.817	-8.274	-3.822
148	1	1	0.0000	-1.637	-7.743	-4.042
149	1	1	0.0000	-2.287	-8.391	-4.161
150	1	1	0.0000	-2.919	-7.912	-3.586
151	1	1	0.0000	-3.449	-7.561	-2.848
152	1	1	0.0000	-4.408	-7.344	-3.015
153	1	1	0.0000	-4.805	-6.64	-3.479
154	1	1	0.0000	-4.222	-5.992	-3.872
155	1	1	0.0000	-3.484	-5.531	-4.215
156	1	1	0.0000	-4.408	-5.443	-4.369
157	1	1	0.0000	-4.972	-4.751	-4.409
158	1	2	0.0000	-5.064	-5.285	-3.703
159	1	1	0.0000	-6.016	-5.202	-3.524
160	1	1	0.0000	-6.12	-4.554	-4.232
161	1	1	0.0000	-6.741	-3.923	-3.872
162	1	1	0.0000	-7.092	-3.687	-3.027
163	1	1	0.0000	-6.593	-3.552	-2.216
164	1	1	0.0000	-6.326	-2.634	-2.512
165	1	1	0.0000	-6.261	-3.01	-1.578
166	1	1	0.0000	-6.609	-2.458	-0.842
167	1	1	0.0000	-7.002	-3.324	-1.076
168	1	1	0.0000	-7.668	-2.948	-1.704
169	1	1	0.0000	-7.574	-2.076	-1.18
170	1	1	0.0000	-7.331	-2.13	-0.128
171	1	1	0.0000	-7.828	-2.594	0.532
172	1	1	0.0000	-7.46	-2.997	1.313
173	1	2	0.0000	-7.823	-2.185	0.898
174	1	1	0.0000	-7.133	-2.605	1.433
175	1	1	0.0000	-6.445	-3.07	1.867
176	1	1	0.0000	-7.21	-2.708	2.313
177	1	1	0.0000	-6.887	-3.63	2.413
178	1	1	0.0000	-7.416	-4.488	2.359
179	1	1	0.0000	-6.695	-4.635	2.959
180	1	1	0.0000	-5.851	-4.7	3.49
181	1	1	0.0000	-6.109	-4.685	2.602
182	1	1	0.0000	-6.34	-4.467	1.646
183	1	1	0.0000	-5.582	-4.599	1.031
184	1	1	0.0000	-5.779	-4.348	0.047
185	1	1	0.0000	-6.198	-3.762	0.613
186	1	1	0.0000	-6.998	-3.428	0.292
187	1	1	0.0000	-6.802	-4.375	0.14
188	1	1	0.0000	-7.646	-4.897	0.104
189	1	1	0.0000	-6.873	-5.11	0.59
190	1	1	0.0000	-6.207	-5.448	1.183
191	1	1	0.0000	-5.488	-6.091	1.272
192	1	1	0.0000	-5.247	-5.863	2.195
193	1	1	0.0000	-4.972	-6.026	3.06
194	1	1	0.0000	-4.989	-6.733	2.418
195	1	1	0.0000	-4.61	-6.987	3.261
196	1	1	0.0000	-4.001	-7.235	3.966
197	1	1	0.0000	-3.302	-7.5	4.645
198	1	1	0.0000	-2.32	-7.579	4.647
199	1	1	0.0000	-1.605	-7.089	4.288
200	1	1	0.0000	-1.121	-6.262	4.335
201	1	5	0.0000	-0.639	-5.669	5.008
202	1	5	0.0000	-0.205	-5.824	4.156
203	1	5	0.0000	0.122	-5.615	3.323
204	1	5	0.0000	-0.41	-4.901	3.589
205	1	5	0.0000	0.467	-5.408	3.336
206	1	5	0.0000	1.304	-5.814	3.343
207	1	5	0.0000	1.346	-5.931	4.295
208	1	5	0.0000	2.084	-6.038	4.955
209	1	5	0.0000	1.876	-6.838	4.436
210	1	5	0.0000	2.567	-6.976	5.035
211	1	5	0.0000	3.458	-7.356	4.81
212	1	5	0.0000	3.092	-6.51	5.077
213	1	5	0.0000	3.044	-5.981	5.919
214	1	5	0.0000	3.858	-5.819	5.385
215	1	5	0.0000	4.554	-5.126	5.504
216	1	5	0.0000	5.181	-5.03	4.787
217	1	5	0.0000	4.585	-4.747	4.124
218	1	5	0.0000	4.628	-4.404	3.207
219	1	5	0.0000	4.133	-5.045	2.731
220	1	5	0.0000	4.486	-4.475	1.995
221	1	5	0.0000	4.48	-5.147	1.333
222	1	5	0.0000	4.214	-5.059	0.413
223	1	5	0.0000	4.842	-5.258	-0.303
224	1	5	0.0000	3.996	-4.968	0.023
225	1	5	0.0000	3.491	-5.728	-0.272
226	1	5	0.0000	2.86	-5.99	-1.039
227	1	5	0.0000	2.407	-6.564	-1.635
228	1	5	0.0000	1.837	-6.872	-2.38
229	1	5	0.0000	1.545	-7.132	-3.295
230	1	5	0.0000	1.056	-6.354	-3.539
231	1	5	0.0000	0.274	-6.068	-3.067
232	1	5	0.0000	0.56	-6.646	-3.796
233	1	5	0.0000	-0.334	-6.367	-4.055
234	1	5	0.0000	-1.07	-6.057	-4.567
235	1	5	0.0000	-0.792	-5.61	-5.405
236	1	5	0.0000	-0.921	-6.42	-4.909
237	1	5	0.0000	-1.054	-6.187	-5.861
238	1	5	0.0000	-1.78	-5.581	-5.76
239	1	5	0.0000	-2.096	-6.341	-6.303
240	1	5	0.0000	-2.069	-5.505	-6.826
241	1	5	0.0000	-2.46	-4.632	-6.668
242	1	5	0.0000	-3.297	-4.675	-6.153
243	1	5	0.0000	-2.351	-4.385	-5.961
244	1	5	0.0000	-2.225	-4.663	-5.091
245	1	5	0.0000	-2.817	-4.137	-4.528
246	1	5	0.0000	-2.729	-3.603	-3.717
247	1	5	0.0000	-2.941	-3.43	-2.738
248	1	5	0.0000	-3.241	-4.238	-3.141
249	1	5	0.0000	-4.058	-3.812	-3.377
250	1	5	0.0000	-3.822	-4.561	-2.805
251	1	5	0.0000	-4.413	-3.94	-3.333
252	1	5	0.0000	-4.759	-3.552	-2.542
253	1	5	0.0000	-5.452	-3.605	-1.877
254	1	5	0.0000	-5.187	-4.417	-2.257
255	1	5	0.0000	-5.293	-4.55	-1.285
256	1	5	0.0000	-4.927	-4.9	-2.157
257	1	5	0.0000	-5.269	-5.626	-2.667
258	1	5	0.0000	-5.684	-5.453	-1.796
259	1	5	0.0000	-5.077	-5.871	-2.418
260	1	5	0.0000	-4.216	-5.618	-2.142
261	1	5	0.0000	-4.072	-6.432	-1.638
262	1	5	0.0000	-5.018	-6.706	-1.691
263	1	5	0.0000	-4.376	-7.169	-1.253
264	1	5	0.0000	-4.619	-7.003	-0.348
265	1	5	0.0000	-3.651	-7.147	-0.2
266	1	5	0.0000	-2.96	-7.776	-0.282
267	1	5	0.0000	-3.043	-8.076	-1.171
268	1	5	0.0000	-2.619	-8.737	-1.797
269	1	5	0.0000	-2.442	-7.968	-2.359
270	1	5	0.0000	-1.953	-7.201	-2.632
271	1	5	0.0000	-1.554	-6.562	-2.107
272	1	5	0.0000	-0.646	-6.351	-2.228
273	1	5	0.0000	-1.092	-6.034	-3.041
274	1	5	0.0000	-0.599	-5.451	-3.621
275	1	5	0.0000	-0.476	-5.2	-4.535
276	1	5	0.0000	-0.17	-4.323	-4.926
277	1	5	0.0000	-0.408	-3.997	-5.859
278	1	5	0.0000	-1.241	-4.336	-6.107
279	1	5	0.0000	-0.594	-4.26	-6.779
280	1	5	0.0000	-1.27	-3.801	-6.284
281	1	5	0.0000	-0.765	-2.991	-6.537
282	1	5	0.0000	-1.571	-3.382	-6.9
283	1	5	0.0000	-0.842	-2.773	-6.592
284	1	5	0.0000	-1.116	-2.626	-7.537
285	1	5	0.0000	-2.072	-2.502	-7.697
286	1	5	0.0000	-2.98	-2.817	-7.779
287	1	5	0.0000	-2.848	-3.393	-7.021
288	1	5	0.0000	-3.641	-2.774	-7.268
289	1	5	0.0000	-4.332	-2.926	-6.564
290	1	5	0.0000	-4.909	-3.7	-6.464
291	1	5	0.0000	-5.346	-2.985	-6.058
292	1	5	0.0000	-5.963	-2.259	-5.925
293	1	5	0.0000	-5.335	-2.657	-5.337
294	1	5	0.0000	-5.931	-2.173	-4.86
295	1	5	0.0000	-5.787	-1.461	-4.223
296	1	5	0.0000	-6.63	-1.286	-3.716
297	1	5	0.0000	-6.148	-1.285	-2.837
298	1	5	0.0000	-6.074	-1.246	-1.889
299	1	5	0.0000	-5.179	-1.542	-1.858
300	1	5	0.0000	-5.975	-1.883	-1.47
301	1	5	0.0000	-5.062	-1.787	-1.417
302	1	5	0.0000	-5.5	-2.077	-0.634
303	1	5	0.0000	-5.01	-2.116	0.222
304	1	5	0.0000	-5.756	-1.812	-0.306
305	1	5	0.0000	-5.93	-2.206	0.559
306	1	5	0.0000	-5.382	-3.031	0.769
307	1	5	0.0000	-5.149	-3.484	1.535
308	1	5	0.0000	-4.763	-4.349	1.693
309	1	5	0.0000	-4.769	-4.703	2.607
310	1	5	0.0000	-4.999	-3.949	3.129
311	1	5	0.0000	-4.897	-3.298	3.753
312	1	5	0.0000	-5.424	-3.091	4.472
313	1	5	0.0000	-5.98	-2.398	4.666
314	1	5	0.0000	-6.457	-1.958	5.441
315	1	5	0.0000	-5.495	-1.892	5.625
316	1	5	0.0000	-5.206	-2.85	5.796
317	1	5	0.0000	-4.594	-2.747	6.595
318	1	5	0.0000	-5.441	-3.148	6.865
319	1	5	0.0000	-4.527	-3.436	6.677
320	1	5	0.0000	-4.083	-3.487	5.794
321	1	5	0.0000	-3.507	-4.119	5.412
322	1	5	0.0000	-4.46	-4.056	5.606
323	1	5	0.0000	-5.347	-4.245	5.22
324	1	5	0.0000	-5.196	-5.138	5.477
325	1	5	0.0000	-4.815	-6.078	5.556
326	1	5	0.0000	-4.926	-5.254	5.04
327	1	5	0.0000	-4.613	-5.155	4.147
328	1	5	0.0000	-4.405	-6.058	4.095
329	1	5	0.0000	-3.886	-6.227	3.208
330	1	5	0.0000	-3.322	-7.05	3.187
331	1	5	0.0000	-2.703	-7.24	2.44
332	1	5	0.0000	-2.979	-7.76	1.696
333	1	5	0.0000	-3.192	-7.599	0.734
334	1	5	0.0000	-2.889	-6.739	0.401
335	1	5	0.0000	-2.659	-6.758	-0.497
336	1	5	0.0000	-2.753	-6.736	-1.499
337	1	5	0.0000	-3.281	-6.683	-2.303
338	1	5	0.0000	-3.247	-5.811	-2.733
339	1	5	0.0000	-2.439	-6.25	-2.855
340	1	5	0.0000	-2.787	-6.238	-3.763
341	1	5	0.0000	-2.3	-5.736	-4.389
342	1	5	0.0000	-1.532	-5.156	-4.365
343	1	5	0.0000	-1.178	-4.367	-4.779
344	1	5	0.0000	-1.492	-5.07	-4.254
345	1	5	0.0000	-1.167	-4.281	-4.744
346	1	5	0.0000	-0.727	-3.392	-4.624
347	1	5	0.0000	-0.147	-2.659	-4.786
348	1	5	0.0000	0.426	-3.384	-4.736
349	1	5	0.0000	0.703	-3.335	-5.674
350	1	5	0.0000	1.185	-2.922	-4.961
351	1	5	0.0000	1.514	-3.558	-5.664
352	1	5	0.0000	1.353	-2.916	-4.917
353	1	5	0.0000	1.969	-2.409	-4.259
354	1	5	0.0000	2.073	-3.065	-3.546
355	1	5	0.0000	1.27	-2.661	-3.909
356	1	5	0.0000	1.792	-3.484	-4.048
357	1	5	0.0000	1.825	-4.428	-4.051
358	1	5	0.0000	0.987	-4.229	-4.457
359	1	5	0.0000	0.818	-4.973	-3.902
360	1	5	0.0000	0.479	-4.754	-3.014
361	1	5	0.0000	0.097	-5.251	-2.287
362	1	5	0.0000	-0.489	-5.109	-1.583
363	1	5	0.0000	-1.016	-5.664	-1.02
364	1	5	0.0000	-1.952	-5.768	-1.014
365	1	5	0.0000	-2.696	-5.568	-1.587
366	1	5	0.0000	-2.531	-5.75	-0.697
367	1	5	0.0000	-2.518	-5.609	0.277
368	1	5	0.0000	-3.435	-5.608	-0.1
369	1	5	0.0000	-2.951	-5.8	0.716
370	1	5	0.0000	-3.639	-6.417	1.183
371	1	5	0.0000	-3.921	-6.29	2.162
372	1	5	0.0000	-3.191	-6.623	1.6
373	1	5	0.0000	-2.944	-6.123	2.425
374	1	5	0.0000	-2.311	-6.107	3.13
375	1	5	0.0000	-2.233	-6.102	4.088
376	1	5	0.0000	-2.44	-6.212	5.039
377	1	5	0.0000	-1.666	-6.392	5.669
378	1	5	0.0000	-1.057	-6.124	6.335
379	1	5	0.0000	-0.129	-6.087	5.946
380	1	5	0.0000	0.317	-5.265	6.363
381	1	5	0.0000	1.224	-4.904	6.493
382	1	5	0.0000	1.403	-4.394	7.255
383	1	5	0.0000	1.999	-3.891	6.658
384	1	5	0.0000	2.907	-3.832	6.848
385	1	5	0.0000	3.756	-4.308	6.797
386	1	5	0.0000	4.496	-4.064	6.222
387	1	5	0.0000	5.278	-4.198	5.701
388	1	5	0.0000	5.912	-4.263	4.875
389	1	5	0.0000	6.544	-3.939	4.27
390	1	5	0.0000	7.4	-3.664	3.857
391	1	5	0.0000	7.303	-4.212	3.002
392	1	5	0.0000	7.336	-3.269	2.773
393	1	5	0.0000	8.111	-2.944	2.248
394	1	5	0.0000	8.0	-3.02	1.276
395	1	5	0.0000	7.913	-3.157	0.334
396	1	5	0.0000	7.349	-3.611	-0.266
397	1	5	0.0000	7.209	-3.341	-1.2
398	1	5	0.0000	6.362	-3.809	-1.153
399	1	5	0.0000	5.685	-4.421	-1.416
400	1	5	0.0000	4.893	-4.254	-1.946
401	1	1	0.0000	4.268	-3.651	-2.321
402	1	1	0.0000	3.724	-3.286	-3.057
403	1	1	0.0000	2.819	-3.678	-2.925
404	1	1	0.0000	1.965	-4.132	-2.797
405	1	1	0.0000	1.144	-4.098	-3.234
406	1	1	0.0000	0.192	-3.678	-3.415
407	1	1	0.0000	-0.477	-4.433	-3.307
408	1	1	0.0000	-1.449	-4.664	-3.256
409	1	1	0.0000	-1.913	-5.175	-2.529
410	1	1	0.0000	-2.824	-4.898	-2.3
411	1	1	0.0000	-3.517	-4.667	-1.727
412	1	1	0.0000	-4.255	-4.659	-1.102
413	1	1	0.0000	-4.429	-5.529	-0.792
414	1	1	0.0000	-3.96	-4.765	-0.566
415	1	1	0.0000	-4.445	-5.641	-0.664
416	1	1	0.0000	-4.718	-5.306	0.201
417	1	1	0.0000	-3.969	-5.144	0.737
418	1	1	0.0000	-4.1	-5.444	1.602
419	1	1	0.0000	-3.204	-5.322	1.699
420	1	1	0.0000	-2.326	-5.648	1.841
421	1	1	0.0000	-1.744	-6.484	2.073
422	1	2	0.0000	-0.815	-6.362	2.552
423	1	1	0.0000	0.163	-6.25	2.361
424	1	1	0.0000	1.018	-6.317	2.0
425	1	1	0.0000	1.936	-6.137	1.797
426	1	1	0.0000	2.198	-5.603	1.069
427	1	1	0.0000	2.81	-5.047	0.62
428	1	1	0.0000	2.337	-5.421	-0.078
429	1	1	0.0000	2.578	-4.451	0.162
430	1	1	0.0000	2.347	-5.034	-0.554
431	1	1	0.0000	2.438	-4.219	-1.065
432	1	1	0.0000	2.182	-5.107	-1.495
433	1	1	0.0000	1.974	-4.222	-1.284
434	1	1	0.0000	2.318	-3.547	-1.844
435	1	1	0.0000	1.315	-3.593	-2.044
436	1	1	0.0000	0.601	-3.066	-2.44
437	1	2	0.0000	0.365	-3.918	-2.082
438	1	1	0.0000	0.448	-3.11	-2.563
439	1	1	0.0000	0.022	-3.932	-2.144
440	1	1	0.0000	-0.635	-3.55	-2.798
441	1	1	0.0000	-1.459	-3.611	-3.288
442	1	1	0.0000	-2.131	-4.024	-2.658
443	1	1	0.0000	-2.529	-3.868	-1.801
444	1	1	0.0000	-2.021	-4.696	-1.408
445	1	1	0.0000	-2.734	-4.124	-1.446
446	1	1	0.0000	-3.112	-3.74	-0.676
447	1	1	0.0000	-2.562	-4.44	-0.308
448	1	1	0.0000	-1.911	-4.257	0.412
449	1	1	0.0000	-2.094	-4.877	-0.306
450	1	1	0.0000	-1.946	-4.616	0.587
451	1	1	0.0000	-1.402	-4.965	-0.192
452	1	2	0.0000	-0.572	-5.319	0.171
453	1	1	0.0000	-1.334	-5.72	0.568
454	1	1	0.0000	-1.702	-6.542	0.723
455	1	1	0.0000	-1.402	-5.686	0.839
456	1	1	0.0000	-0.652	-6.07	1.317
457	1	1	0.0000	-1.225	-5.487	1.824
458	1	1	0.0000	-0.448	-5.876	1.443
459	1	1	0.0000	-0.508	-5.479	2.301
460	1	1	0.0000	-1.082	-5.554	3.111
461	1	1	0.0000	-1.489	-5.305	4.011
462	1	1	0.0000	-2.39	-4.976	4.084
463	1	1	0.0000	-1.457	-5.136	4.25
464	1	1	0.0000	-1.637	-4.788	5.129
465	1	1	0.0000	-2.469	-4.896	5.615
466	1	1	0.0000	-2.359	-4.45	6.471
467	1	2	0.0000	-2.729	-3.642	6.748
468	1	1	0.0000	-1.75	-3.823	6.957
469	1	1	0.0000	-2.336	-3.152	7.319
470	1	1	0.0000	-2.102	-2.338	6.925
471	1	1	0.0000	-1.281	-2.842	7.09
472	1	1	0.0000	-1.834	-2.886	6.329
473	1	1	0.0000	-2.56	-2.419	5.955
474	1	1	0.0000	-2.827	-3.26	5.49
475	1	1	0.0000	-3.589	-2.945	5.016
476	1	1	0.0000	-3.996	-2.328	5.587
477	1	1	0.0000	-4.068	-2.486	4.649
478	1	1	0.0000	-4.513	-1.575	4.64
479	1	1	0.0000	-5.283	-1.79	4.079
480	1	1	0.0000	-5.097	-2.002	3.109
481	1	1	0.0000	-5.599	-2.349	2.353
482	1	2	0.0000	-4.68	-2.53	2.315
483	1	1	0.0000	-4.519	-2.666	1.322
484	1	1	0.0000	-4.288	-2.859	0.404
485	1	1	0.0000	-4.16	-2.691	1.348
486	1	1	0.0000	-3.908	-3.558	1.834
487	1	1	0.0000	-3.856	-4.307	2.363
488	1	1	0.0000	-3.047	-4.738	2.734
489	1	1	0.0000	-2.296	-3.976	2.725
490	1	1	0.0000	-1.688	-4.017	3.482
491	1	1	0.0000	-1.103	-3.775	4.198
492	1	1	0.0000	-0.96	-3.798	5.14
493	1	1	0.0000	-1.18	-4.003	6.006
494	1	1	0.0000	-0.623	-3.223	5.842
495	1	1	0.0000	0.211	-3.41	6.18
496	1	1	0.0000	0.909	-3.066	6.727
497	1	2	0.0000	1.561	-2.902	6.068
498	1	1	0.0000	2.479	-3.061	5.994
499	1	1	0.0000	3.434	-3.177	6.069
500	1	1	0.0000	4.209	-2.589	6.07
501	1	1	0.0000	4.802	-2.858	5.379
502	1	1	0.0000	4.881	-3.312	4.534
503	1	1	0.0000	4.956	-3.461	3.626
504	1	1	0.0000	5.02	-2.624	4.051
505	1	1	0.0000	5.81	-2.117	4.169
506	1	1	0.0000	6.212	-2.22	3.316
507	1	1	0.0000	6.96	-2.597	3.862
508	1	1	0.0000	6.838	-1.742	3.352
509	1	1	0.0000	7.554	-1.159	3.143
510	1	1	0.0000	6.87	-0.442	3.444
511	1	1	0.0000	7.447	-0.686	2.756
512	1	2	0.0000	7.004	-0.099	3.377
513	1	1	0.0000	6.501	0.505	2.858
514	1	1	0.0000	5.914	-0.125	2.444
515	1	1	0.0000	5.321	-0.236	3.123
516	1	1	0.0000	5.719	-0.77	3.817
517	1	1	0.0000	5.898	-0.037	4.425
518	1	1	0.0000	5.749	-0.741	5.203
519	1	1	0.0000	4.983	-0.564	4.676
520	1	1	0.0000	5.444	-1.315	5.086
521	1	1	0.0000	4.736	-0.721	5.0
522	1	1	0.0000	5.012	-1.337	5.758
523	1	1	0.0000	4.906	-1.071	6.635
524	1	1	0.0000	4.469	-1.505	5.856
525	1	1	0.0000	3.533	-1.506	5.559
526	1	1	0.0000	2.985	-1.949	4.921
527	1	2	0.0000	2.993	-2.926	4.554
528	1	1	0.0000	3.545	-3.496	5.106
529	1	1	0.0000	3.008	-4.107	4.67
530	1	1	0.0000	2.276	-4.684	4.818
531	1	1	0.0000	2.654	-4.19	5.484
532	1	1	0.0000	1.947	-4.678	5.004
533	1	1	0.0000	0.985	-4.623	5.207
534	1	1	0.0000	0.474	-5.405	5.018
535	1	1	0.0000	0.562	-4.515	5.28
536	1	1	0.0000	0.167	-3.688	5.004
537	1	1	0.0000	0.464	-2.811	5.324
538	1	1	0.0000	-0.322	-2.258	5.202
539	1	1	0.0000	0.622	-2.233	5.553
540	1	1	0.0000	-0.297	-1.979	5.188
541	1	1	0.0000	-0.548	-1.803	6.111
542	1	2	0.0000	-0.747	-1.259	7.005
543	1	1	0.0000	-0.339	-1.264	7.827
544	1	1	0.0000	0.412	-0.967	7.302
545	1	1	0.0000	0.225	-1.645	7.98
546	1	1	0.0000	0.224	-1.927	8.936
547	1	1	0.0000	0.998	-1.494	8.624
548	1	1	0.0000	1.461	-1.311	7.788
549	1	1	0.0000	1.789	-0.975	6.897
550	1	1	0.0000	1.825	-0.468	7.701
551	1	1	0.0000	2.046	-0.098	8.65
552	1	1	0.0000	2.617	-0.244	7.914
553	1	1	0.0000	2.419	0.023	6.932
554	1	1	0.0000	2.956	-0.672	6.659
555	1	1	0.0000	2.909	-1.669	6.714
556	1	1	0.0000	2.165	-2.196	7.009
557	1	2	0.0000	2.364	-1.962	6.09
558	1	1	0.0000	2.041	-2.486	5.144
559	1	1	0.0000	1.646	-3.423	5.121
560	1	1	0.0000	1.417	-3.998	4.432
561	1	1	0.0000	0.708	-4.639	4.206
562	1	1	0.0000	1.414	-4.34	3.543
563	1	1	0.0000	0.818	-4.274	2.803
564	1	1	0.0000	0.735	-5.074	2.228
565	1	1	0.0000	0.668	-5.035	1.307
566	1	1	0.0000	-0.1	-4.635	1.07
567	1	1	0.0000	-0.841	-4.296	0.62
568	1	1	0.0000	-0.723	-4.06	-0.335
569	1	1	0.0000	-1.362	-3.957	-1.005
570	1	1	0.0000	-1.22	-3.965	-1.954
571	1	1	0.0000	-1.607	-3.629	-1.165
572	1	2	0.0000	-1.864	-3.047	-1.854
573	1	1	0.0000	-2.151	-2.622	-2.709
574	1	1	0.0000	-1.53	-2.152	-3.253
575	1	1	0.0000	-1.532	-2.518	-4.099
576	1	1	0.0000	-1.887	-3.254	-4.735
577	1	1	0.0000	-2.73	-2.985	-5.079
578	1	1	0.0000	-2.531	-2.848	-5.965
579	1	1	0.0000	-3.348	-2.986	-5.417
580	1	1	0.0000	-3.637	-3.861	-5.583
581	1	1	0.0000	-4.073	-3.535	-4.834
582	1	1	0.0000	-3.642	-3.13	-4.075
583	1	1	0.0000	-4.388	-3.1	-4.621
584	1	1	0.0000	-5.2	-3.601	-4.861
585	1	1	0.0000	-4.939	-3.153	-4.028
586	1	1	0.0000	-5.164	-2.169	-3.854
587	1	2	0.0000	-4.476	-2.596	-3.418
588	1	1	0.0000	-5.346	-2.101	-3.201
589	1	1	0.0000	-4.762	-2.561	-2.656
590	1	1	0.0000	-4.29	-2.658	-1.814
591	1	1	0.0000	-4.896	-2.76	-1.092
592	1	1	0.0000	-5.04	-3.596	-0.553
593	1	1	0.0000	-4.205	-3.772	-0.07
594	1	1	0.0000	-3.498	-3.761	0.562
595	1	1	0.0000	-3.057	-4.719	0.669
596	1	1	0.0000	-3.282	-3.761	0.852
597	1	1	0.0000	-2.804	-4.498	1.255
598	1	1	0.0000	-1.86	-4.397	1.614
599	1	1	0.0000	-1.619	-4.746	2.44
600	1	1	0.0000	-1.764	-4.119	1.732
601	1	3	0.0000	-0.915	-4.116	2.173
602	1	4	0.0000	-0.84	-3.419	2.811
603	1	4	0.0000	-0.531	-4.308	2.634
604	1	3	0.0000	-0.139	-3.844	3.315
605	1	3	0.0000	0.759	-3.484	3.555
606	1	4	0.0000	-0.141	-3.791	3.764
607	1	4	0.0000	0.758	-3.368	3.407
608	1	3	0.0000	1.682	-3.133	3.336
609	1	3	0.0000	2.551	-3.534	3.164
610	1	4	0.0000	2.186	-3.197	3.998
611	1	4	0.0000	2.821	-3.334	3.24
612	1	3	0.0000	3.155	-2.418	3.151
613	1	3	0.0000	2.366	-2.101	2.622
614	1	4	0.0000	2.812	-2.263	3.427
615	1	4	0.0000	2.269	-2.221	2.617
616	1	3	0.0000	1.622	-2.26	1.974
617	1	3	0.0000	2.228	-2.473	1.258
618	1	4	0.0000	1.907	-3.163	1.767
619	1	4	0.0000	2.58	-2.818	1.171
620	1	3	0.0000	2.274	-3.456	1.769
621	1	3	0.0000	2.141	-4.275	2.233
622	1	4	0.0000	1.722	-5.087	2.042
623	1	4	0.0000	2.399	-4.636	1.575
624	1	3	0.0000	1.841	-4.551	0.874
625	1	3	0.0000	1.353	-5.169	0.26
626	1	4	0.0000	1.239	-5.502	-0.629
627	1	4	0.0000	1.241	-5.729	0.273
628	1	3	0.0000	0.366	-5.907	0.57
629	1	3	0.0000	-0.016	-6.138	-0.217
630	1	4	0.0000	0.021	-5.295	-0.732
631	1	4	0.0000	-0.234	-6.275	-0.653
632	1	3	0.0000	0.473	-6.819	-1.156
633	1	3	0.0000	0.391	-5.964	-1.552
634	1	4	0.0000	1.305	-6.361	-1.56
635	1	4	0.0000	1.574	-5.813	-2.299
636	1	3	0.0000	1.412	-4.9	-2.275
637	1	3	0.0000	0.913	-4.582	-1.503
638	1	4	0.0000	1.161	-4.359	-0.615
639	1	4	0.0000	1.101	-3.515	-0.855
640	1	3	0.0000	0.299	-4.127	-0.831
641	1	3	0.0000	0.737	-3.361	-1.106
642	1	4	0.0000	0.146	-4.045	-0.914
643	1	4	0.0000	0.114	-3.188	-1.251
644	1	3	0.0000	-0.798	-3.095	-1.364
645	1	3	0.0000	-0.857	-2.927	-0.415
646	1	4	0.0000	-1.317	-3.209	0.397
647	1	4	0.0000	-2.254	-3.267	0.028
648	1	3	0.0000	-1.885	-3.329	0.927
649	1	3	0.0000	-2.178	-3.242	1.912
650	1	4	0.0000	-2.842	-2.843	2.441
651	1	4	0.0000	-2.732	-3.481	1.686
652	1	3	0.0000	-3.156	-3.032	2.425
653	1	3	0.0000	-3.573	-3.01	3.311
654	1	4	0.0000	-3.275	-4.046	3.387
655	1	4	0.0000	-4.082	-3.86	3.858
656	1	3	0.0000	-3.154	-4.217	3.722
657	1	3	0.0000	-3.665	-3.634	4.218
658	1	4	0.0000	-2.702	-3.501	4.351
659	1	4	0.0000	-2.01	-3.867	4.973
660	1	3	0.0000	-1.782	-2.961	5.204
661	1	3	0.0000	-1.448	-2.069	5.462
662	1	4	0.0000	-1.706	-2.897	5.036
663	1	4	0.0000	-1.135	-2.26	4.54
664	1	3	0.0000	-1.005	-2.243	3.494
665	1	3	0.0000	-0.53	-2.758	4.209
666	1	4	0.0000	-1.095	-2.631	3.438
667	1	4	0.0000	-1.8	-3.021	3.873
668	1	3	0.0000	-1.988	-2.1	3.93
669	1	3	0.0000	-2.305	-2.92	3.572
670	1	4	0.0000	-2.108	-2.112	3.978
671	1	4	0.0000	-2.942	-2.316	4.35
672	1	3	0.0000	-3.455	-1.546	4.795
673	1	3	0.0000	-2.688	-2.01	5.028
674	1	4	0.0000	-3.465	-1.501	5.045
675	1	4	0.0000	-3.155	-0.562	5.039
676	1	3	0.0000	-2.497	-0.234	5.619
677	1	3	0.0000	-3.244	-0.802	5.96
678	1	4	0.0000	-3.156	-1.435	6.741
679	1	4	0.0000	-3.832	-1.907	7.261
680	1	3	0.0000	-3.394	-1.056	7.036
681	1	3	0.0000	-2.828	-0.56	7.672
682	1	4	0.0000	-2.797	-0.127	6.743
683	1	4	0.0000	-2.136	-0.587	7.307
684	1	3	0.0000	-1.962	0.012	8.17
685	1	3	0.0000	-1.35	-0.185	7.446
686	1	4	0.0000	-0.436	0.0	7.261
687	1	4	0.0000	0.521	0.131	7.182
688	1	3	0.0000	1.093	-0.33	6.457
689	1	3	0.0000	1.483	-0.841	5.764
690	1	4	0.0000	0.931	-1.27	5.052
691	1	4	0.0000	1.848	-1.459	4.871
692	1	3	0.0000	2.709	-0.986	5.024
693	1	3	0.0000	1.95	-1.186	4.509
694	1	4	0.0000	2.831	-0.958	4.249
695	1	4	0.0000	3.695	-0.477	3.902
696	1	3	0.0000	2.89	-1.109	3.924
697	1	3	0.0000	3.79	-0.747	3.761
698	1	4	0.0000	3.738	-1.687	4.04
699	1	4	0.0000	4.151	-2.067	4.86
700	1	3	0.0000	4.096	-1.842	3.828
701	1	3	0.0000	4.463	-1.624	2.964
702	1	4	0.0000	5.428	-1.435	2.901
703	1	4	0.0000	5.033	-2.271	2.784
704	1	3	0.0000	5.585	-1.475	2.81
705	1	3	0.0000	5.772	-2.334	2.33
706	1	4	0.0000	6.042	-3.276	2.477
707	1	4	0.0000	6.294	-2.377	2.156
708	1	3	0.0000	6.956	-1.663	2.159
709	1	3	0.0000	6.817	-2.254	1.42
710	1	4	0.0000	6.421	-3.084	1.103
711	1	4	0.0000	6.196	-3.483	0.219
712	1	3	0.0000	6.227	-4.31	0.631
713	1	3	0.0000	5.954	-4.376	-0.332
714	1	4	0.0000	5.599	-4.485	0.555
715	1	4	0.0000	5.689	-4.308	1.563
716	1	3	0.0000	5.118	-4.029	0.725
717	1	3	0.0000	5.504	-3.392	1.388
718	1	4	0.0000	4.808	-3.573	0.827
719	1	4	0.0000	5.332	-3.104	1.392
720	1	3	0.0000	5.527	-2.699	0.57
721	1	3	0.0000	5.012	-3.198	-0.087
722	1	4	0.0000	5.371	-2.274	-0.142
723	1	4	0.0000	4.804	-2.25	-0.915
724	1	3	0.0000	4.007	-1.78	-0.963
725	1	3	0.0000	4.567	-1.276	-0.412
726	1	4	0.0000	3.766	-1.008	-0.852
727	1	4	0.0000	3.929	-0.212	-0.358
728	1	3	0.0000	4.259	-0.427	-1.253
729	1	3	0.0000	4.259	-0.518	-2.195
730	1	4	0.0000	4.827	-0.863	-1.549
731	1	4	0.0000	5.693	-0.653	-1.174
732	1	3	0.0000	5.895	-1.275	-1.859
733	1	3	0.0000	5.524	-0.669	-2.46
734	1	4	0.0000	6.25	-1.298	-2.57
735	1	4	0.0000	6.161	-1.924	-3.292
736	1	3	0.0000	5.426	-1.823	-3.902
737	1	3	0.0000	5.6	-0.885	-4.072
738	1	4	0.0000	5.184	-1.457	-3.247
739	1	4	0.0000	4.331	-1.932	-3.208
740	1	3	0.0000	4.949	-1.654	-2.538
741	1	3	0.0000	4.692	-2.544	-2.411
742	1	4	0.0000	4.7	-1.597	-2.19
743	1	4	0.0000	4.517	-2.535	-2.206
744	1	3	0.0000	3.833	-1.864	-1.983
745	1	3	0.0000	3.125	-1.495	-1.488
746	1	4	0.0000	3.742	-1.965	-1.995
747	1	4	0.0000	3.217	-2.496	-1.422
748	1	3	0.0000	3.217	-2.98	-2.215
749	1	3	0.0000	3.313	-3.118	-1.249
750	1	4	0.0000	3.463	-3.965	-0.758
751	1	4	0.0000	3.886	-3.326	-1.286
752	1	3	0.0000	3.968	-3.833	-0.472
753	1	3	0.0000	3.8	-3.991	0.459
754	1	4	0.0000	3.47	-3.348	1.103
755	1	4	0.0000	3.974	-4.089	1.202
756	1	3	0.0000	3.157	-3.929	1.72
757	1	3	0.0000	3.19	-4.636	2.379
758	1	4	0.0000	3.556	-3.752	2.542
759	1	4	0.0000	4.489	-3.476	2.513
760	1	3	0.0000	3.664	-3.688	2.839
761	1	3	0.0000	4.061	-2.899	2.453
762	1	4	0.0000	3.201	-2.781	1.984
763	1	4	0.0000	3.293	-1.858	2.326
764	1	3	0.0000	3.388	-1.053	1.867
765	1	3	0.0000	4.12	-1.728	1.877
766	1	4	0.0000	4.779	-2.379	1.638
767	1	4	0.0000	4.241	-1.628	1.394
768	1	3	0.0000	3.349	-1.868	1.019
769	1	3	0.0000	4.248	-1.624	0.805
770	1	4	0.0000	3.894	-2.522	0.599
771	1	4	0.0000	4.507	-1.796	0.488
772	1	3	0.0000	4.035	-2.627	0.235
773	1	3	0.0000	3.241	-2.871	-0.227
774	1	4	0.0000	2.381	-2.936	-0.639
775	1	4	0.0000	2.955	-3.214	0.084
776	1	3	0.0000	2.209	-3.255	-0.54
777	1	3	0.0000	2.15	-3.354	0.401
778	1	4	0.0000	1.217	-3.438	0.581
779	1	4	0.0000	0.704	-4.228	0.494
780	1	3	0.0000	0.725	-3.819	1.286
781	1	3	0.0000	0.055	-3.635	1.945
782	1	4	0.0000	0.967	-3.753	1.956
783	1	4	0.0000	0.06	-3.407	2.201
784	1	3	0.0000	0.881	-2.927	2.41
785	1	3	0.0000	0.206	-2.574	2.961
786	1	4	0.0000	1.101	-2.871	2.546
787	1	4	0.0000	0.881	-2.272	3.273
788	1	3	0.0000	0.477	-2.508	4.106
789	1	3	0.0000	1.331	-2.123	3.778
790	1	4	0.0000	1.715	-1.457	3.318
791	1	4	0.0000	1.663	-0.966	2.507
792	1	3	0.0000	1.789	-1.365	3.327
793	1	3	0.0000	1.77	-0.626	2.653
794	1	4	0.0000	2.541	-0.409	2.147
795	1	4	0.0000	1.7	-0.219	1.695
796	1	3	0.0000	2.436	-0.911	1.61
797	1	3	0.0000	1.555	-0.6	1.487
798	1	4	0.0000	1.812	-1.508	1.235
799	1	4	0.0000	1.52	-0.869	0.501
800	1	3	0.0000	1.967	-1.547	0.929
801	1	3	0.0000	1.587	-0.906	0.298
802	1	4	0.0000	1.669	-1.864	0.124
803	1	4	0.0000	1.01	-2.366	-0.331
804	1	3	0.0000	1.765	-2.378	0.194
805	1	3	0.0000	0.944	-2.491	-0.396
806	1	4	0.0000	0.215	-3.038	-0.18
807	1	4	0.0000	0.142	-3.22	0.771
808	1	3	0.0000	0.327	-3.304	-0.108
809	1	3	0.0000	-0.231	-3.404	0.692
810	1	4	0.0000	-0.848	-3.191	1.303
811	1	4	0.0000	-1.317	-2.504	1.749
812	1	3	0.0000	-1.269	-1.599	1.907
813	1	3	0.0000	-0.732	-2.378	2.099
814	1	4	0.0000	-1.04	-1.404	2.193
815	1	4	0.0000	-0.52	-1.376	2.969
816	1	3	0.0000	0.154	-0.733	2.564
817	1	3	0.0000	0.019	-1.668	2.438
818	1	4	0.0000	0.429	-0.836	2.956
819	1	4	0.0000	0.636	-1.618	2.451
820	1	3	0.0000	0.893	-1.413	1.533
821	1	3	0.0000	0.103	-0.931	1.198
822	1	4	0.0000	0.76	-1.657	1.326
823	1	4	0.0000	-0.137	-1.323	1.151
824	1	3	0.0000	0.293	-2.141	0.939
825	1	3	0.0000	-0.597	-1.885	0.663
826	1	4	0.0000	-0.081	-2.38	1.284
827	1	4	0.0000	-0.7	-1.993	0.636
828	1	3	0.0000	-1.301	-1.81	-0.103
829	1	3	0.0000	-1.713	-2.224	0.689
830	1	4	0.0000	-1.504	-2.171	-0.213
831	1	4	0.0000	-1.811	-2.357	0.676
832	1	3	0.0000	-2.225	-2.172	-0.172
833	1	3	0.0000	-2.154	-2.69	-0.9
834	1	4	0.0000	-2.838	-2.837	-1.504
835	1	4	0.0000	-3.462	-3.477	-1.855
836	1	3	0.0000	-3.205	-2.612	-1.538
837	1	3	0.0000	-3.784	-2.823	-0.811
838	1	4	0.0000	-3.982	-1.879	-0.742
839	1	4	0.0000	-3.552	-2.711	-0.577
840	1	3	0.0000	-3.361	-2.212	0.225
841	1	3	0.0000	-2.923	-2.803	0.883
842	1	4	0.0000	-3.254	-2.123	0.345
843	1	4	0.0000	-2.903	-2.209	1.23
844	1	3	0.0000	-2.269	-1.966	1.935
845	1	3	0.0000	-1.821	-1.801	2.837
846	1	4	0.0000	-1.437	-1.242	3.577
847	1	4	0.0000	-0.591	-1.297	4.093
848	1	3	0.0000	0.023	-0.569	4.046
849	1	3	0.0000	0.144	-1.506	4.25
850	1	4	0.0000	0.224	-0.557	4.169
851	1	4	0.0000	1.058	-0.729	3.847
852	1	3	0.0000	1.894	-0.29	3.897
853	1	3	0.0000	2.36	0.12	3.198
854	1	4	0.0000	2.303	0.127	4.171
855	1	4	0.0000	2.791	0.045	3.384
856	1	3	0.0000	3.422	-0.295	2.76
857	1	3	0.0000	4.27	-0.604	2.363
858	1	4	0.0000	4.961	-1.141	1.929
859	1	4	0.0000	5.511	-1.62	1.295
860	1	3	0.0000	6.22	-1.143	1.588
861	1	3	0.0000	5.543	-1.693	1.194
862	1	4	0.0000	6.199	-1.579	0.488
863	1	4	0.0000	6.417	-1.996	-0.322
864	1	3	0.0000	5.855	-2.238	-1.027
865	1	3	0.0000	6.168	-2.838	-1.722